 TITLE = "channel.dat"
 VARIABLES = "X" "Y" "phi" "Vx" "Vy" "Vt"
 ZONE NODES=         839 ,ELEMENTS=        1559 ,DATAPACKING=POINT,ZONETYPE=FETRIANGLE
   0.0000000000000000        0.0000000000000000        1.0000000000000000       -5.4865465076642410       -6.4010851654389072        8.4306633117427197     
   1.0000000000000000        0.0000000000000000       -1.9162292225159940E-002   5.8718780434203477E-002  -3.7523470581780276E-003   5.8838552702502926E-002
   2.0000000000000000        0.0000000000000000        6.4620286164375929E-002  0.24662382421467799        1.6798734482555019E-002  0.24719528343090968     
   3.0000000000000000        0.0000000000000000       0.79940270377783684       0.97228370220106741        4.3095222437410922E-002  0.97323830368658626     
   3.0000000000000000        1.0000000000000000       0.86940979376693661       0.95043973124599168        2.1014970609814646E-003  0.95044205453086417     
   0.0000000000000000        1.0000000000000000      -0.62146860691574768       0.91738031480108406       -8.3598332414404022E-002  0.92118148221021323     
  0.10000000000000001        0.0000000000000000       0.24511644702251065       -3.7635670388241378       -2.0900854709876833        4.3049848004095548     
  0.19250000000000000        0.0000000000000000        7.3081070168205808E-002  -1.2535462148499299      -0.47389917813473992        1.3401337783226601     
  0.27806249999999999        0.0000000000000000       -7.1840215762500597E-004 -0.61762875260191930      -0.21001472124687068       0.65235838247163158     
  0.35720781000000001        0.0000000000000000       -3.5565983968207558E-002 -0.31541748288276322      -0.11602990877685775       0.33608202605742571     
  0.43041722999999998        0.0000000000000000       -5.1561159297227613E-002 -0.14664597631619025       -7.3524543740017156E-002  0.16404542328850971     
  0.49813593000000000        0.0000000000000000       -5.7557619145239540E-002  -4.4460440194826908E-002  -5.1123209184706135E-002   6.7751850599529762E-002
  0.56077573999999997        0.0000000000000000       -5.8048607055690087E-002   1.9966957145901302E-002  -3.8125662196861310E-002   4.3037721775384889E-002
  0.61871756000000000        0.0000000000000000       -5.5517616757296731E-002   6.1438901377323663E-002  -3.0306374138804437E-002   6.8507042819652475E-002
  0.67231373999999999        0.0000000000000000       -5.1394125852337859E-002   8.8024450130410464E-002  -2.4844457393981220E-002   9.1463385482730017E-002
  0.72189020999999998        0.0000000000000000       -4.6596644322117284E-002  0.10253585272649256       -2.1131648384193694E-002  0.10469072383827599     
  0.76774845000000003        0.0000000000000000       -4.1669617472060556E-002  0.11042727974465492       -1.9071707207870717E-002  0.11206209942539459     
  0.81016730999999997        0.0000000000000000       -3.6902781245132042E-002  0.11265811629109820       -1.7023458871961657E-002  0.11393704102803433     
  0.84940475999999998        0.0000000000000000       -3.2530787720227966E-002  0.10918589107720181       -1.5406417877002011E-002  0.11026747717311475     
  0.88569940999999996        0.0000000000000000       -2.8690606632986018E-002  0.10252999024989250       -1.4847525609701970E-002  0.10359945905927216     
  0.91927194999999995        0.0000000000000000       -2.5382867941056299E-002   9.4643435558277131E-002  -1.4779036852329550E-002   9.5790395262553701E-002
  0.94618130000000000        0.0000000000000000       -2.2989417298682070E-002   8.4345480282697644E-002  -1.3161692138694794E-002   8.5366212192369867E-002
  0.97309064999999995        0.0000000000000000       -2.0904106132702865E-002   7.3321043412692216E-002  -8.0478305487347024E-003   7.3761392229723027E-002
   1.0233764000000001        8.9213888000000009E-003  -1.8033797698829346E-002   4.8178651460301647E-002  -1.3663847869253840E-003   4.8198023444111969E-002
   1.0469542000000001        1.7794846000000000E-002  -1.6953072524768988E-002   4.5663536717432403E-002  -5.2688707712761308E-004   4.5666576350065276E-002
   1.0707610000000001        2.6501363999999999E-002  -1.5893911923354910E-002   4.4345144631034630E-002  -3.8204125992180132E-004   4.4346790276993689E-002
   1.0948145000000000        3.4913876000000003E-002  -1.4838959104498855E-002   4.4451313044386973E-002  -8.5912715284770964E-004   4.4459614605109297E-002
   1.1191207000000001        4.2898775000000000E-002  -1.3735820234965859E-002   4.6763674307892543E-002   1.2931271775275068E-004   4.6763853097810726E-002
   1.1436691000000001        5.0329273000000001E-002  -1.2581507409338692E-002   4.6711014073764628E-002   1.2387125720849281E-003   4.6727435673656205E-002
   1.1683987000000000        5.7169742000000003E-002  -1.1426047486944894E-002   4.6016042028193607E-002   1.5181494319756494E-003   4.6041078415240105E-002
   1.1932263000000001        6.3435231999999994E-002  -1.0287198701709896E-002   4.5059132065515831E-002   1.6564542600920331E-003   4.5089568895847448E-002
   1.2180712000000000        6.9146917000000002E-002  -9.1741548712278333E-003   4.3878941438678466E-002   1.9555803388425874E-003   4.3922497609319100E-002
   1.2428565000000000        7.4330735999999994E-002  -8.1006365247958071E-003   4.2426615455974440E-002   1.6020740543216787E-003   4.2456852689815104E-002
   1.2675107000000001        7.9014114999999996E-002  -7.0443067127007224E-003   4.3242389852943708E-002   1.4653680789043415E-003   4.3267211416968397E-002
   1.2923861999999999        8.3271600000000001E-002  -5.9486195132146917E-003   4.4686711572682246E-002   2.0292168466544110E-003   4.4732761061562473E-002
   1.3175848999999999        8.7100485000000005E-002  -4.7959228214577839E-003   4.6466597815384904E-002   2.7060834253641113E-003   4.6545328444880088E-002
   1.3430394000000001        9.0468325000000002E-002  -3.5820699323401519E-003   4.8423665747005462E-002   3.4408283470176299E-003   4.8545758868219893E-002
   1.3686776000000000        9.3346631999999999E-002  -2.3089777737428123E-003   5.0266955700775225E-002   4.2890807712549512E-003   5.0449609010239586E-002
   1.3944234000000000        9.5712585000000003E-002  -9.8981352201288298E-004   5.1576545548588537E-002   5.0313540460614134E-003   5.1821371790627534E-002
   1.4201950999999999        9.7556928000000001E-002   3.6125214109761070E-004   5.2791148084051505E-002   5.5615608381276958E-003   5.3083295630437739E-002
   1.4459089000000001        9.8880380000000004E-002   1.7395058387283289E-003   5.4152989894053788E-002   5.9506134709565424E-003   5.4478951120099782E-002
   1.4714821000000000        9.9689456999999995E-002   3.1482056578753057E-003   5.6161043972125055E-002   5.7633384401358434E-003   5.6455991090534507E-002
   1.4968341999999999        9.9996180000000004E-002   4.6214133279470770E-003   6.0419093453143891E-002   5.7658563152123248E-003   6.0693590705670139E-002
   1.5218877000000000        9.9817161000000001E-002   6.1840481760754018E-003   6.4722668811200437E-002   6.3104459019879926E-003   6.5029574698949516E-002
   1.5471604000000001        9.9149427999999998E-002   7.8652034928102608E-003   6.8980563633270250E-002   6.7187537773581241E-003   6.9306996843640611E-002
   1.5726621999999999        9.7976102999999995E-002   9.6652252904100445E-003   7.3102259561788077E-002   7.1685752512988836E-003   7.3452902081351232E-002
   1.5983147000000000        9.6285061000000005E-002   1.1571335115699598E-002   7.6579788560572765E-002   8.6252183930029449E-003   7.7063989050068171E-002
   1.6240368999999999        9.4069571000000005E-002   1.3517481682951379E-002   7.6520233848842059E-002   9.5447748592731377E-003   7.7113221404605359E-002
   1.6497466000000001        9.1330621000000001E-002   1.5476050113207124E-002   7.8391043217231546E-002   8.9683271623988044E-003   7.8902386204586256E-002
   1.6753639000000000        8.8083966000000000E-002   1.7488212094866697E-002   8.1488090791253409E-002   8.7471087441983609E-003   8.1956213017600990E-002
   1.7008118999999999        8.4353340999999998E-002   1.9572629207804480E-002   8.5469939014931273E-002   8.3577617579735572E-003   8.5877602765908168E-002
   1.7260165000000001        8.0167355999999995E-002   2.1752099217111701E-002   9.0981752598875199E-002   6.0013716754968877E-003   9.1179470101280968E-002
   1.7509077000000000        7.5558787000000002E-002   2.4135394710605561E-002  0.10315076763634344        2.9641112161115147E-003  0.10319334677811547     
   1.7754369999999999        7.0552659000000004E-002   2.6797713494549565E-002  0.11514540518914328        9.5648696583046583E-004  0.11514937778159197     
   1.8000913000000001        6.5024534999999994E-002   2.9799553319676913E-002  0.12851588443997697       -2.2775073989170815E-003  0.12853606339600429     
   1.8248006000000001        5.8943968999999999E-002   3.3166403975739202E-002  0.14213408712228837       -5.4365091374214596E-003  0.14223802007089220     
   1.8494898000000000        5.2284246999999999E-002   3.6883718078515100E-002  0.15488042013682843       -6.3396577568317946E-003  0.15501011516102506     
   1.8740797000000000        4.5023485000000002E-002   4.0800440617898517E-002  0.15905000604784136       -7.1782732593320053E-003  0.15921190919904207     
   1.8984976000000000        3.7167777999999999E-002   4.4856308470586276E-002  0.16708114321623599       -1.2201825926248589E-002  0.16752609639808011     
   1.9227114999999999        2.8827656000000000E-002   4.9138974874017805E-002  0.17702786901024897       -1.4806811907404628E-002  0.17764601905241539     
   1.9467113000000000        2.0141470000000002E-002   5.3606497210634492E-002  0.19040308205690865       -1.4896978274684489E-002  0.19098495652403177     
   1.9645002000000000        1.3507541000000000E-002   5.7259205331990366E-002  0.20919241347136441       -1.7400570895565418E-002  0.20991485350366676     
   1.9822579000000000        6.7777391999999997E-003   6.1225991185648310E-002  0.21530540967659784       -7.2910974662782979E-003  0.21542882708279873     
   2.0249999999999999        0.0000000000000000        7.1653353901401665E-002  0.31802515996894004        2.7956399799804393E-002  0.31925156642221258     
   2.0518749999999999        0.0000000000000000        8.1194805751251931E-002  0.37507573953642942        3.5063038269395788E-002  0.37671106572740942     
   2.0807655999999999        0.0000000000000000        9.2791214184519993E-002  0.41781019913569983        3.7398958827437080E-002  0.41948068444588660     
   2.1118229999999998        0.0000000000000000       0.10639203875233198       0.45269214246271688        3.8805713872356956E-002  0.45435235145933600     
   2.1452097999999999        0.0000000000000000       0.12209153218464611       0.48482253340944592        3.9911493603295906E-002  0.48646255377284614     
   2.1811004999999999        0.0000000000000000       0.14004229848623057       0.51506883938528947        3.9488692292636754E-002  0.51658035785799261     
   2.2196829999999999        0.0000000000000000       0.16056467394618454       0.54952216915788832        3.8849233597467843E-002  0.55089370784852998     
   2.2611593000000001        0.0000000000000000       0.18404551009561509       0.58465239293774673        3.8937056056254402E-002  0.58594753596389615     
   2.3057462000000002        0.0000000000000000       0.21086968345637139       0.62152320343752820        3.8441862085830468E-002  0.62271090336678148     
   2.3536771999999999        0.0000000000000000       0.24150777348082847       0.66057184778921474        3.7788013537925748E-002  0.66165179668674667     
   2.4052030000000002        0.0000000000000000       0.27648101040195611       0.70100991816527436        3.6934736201320782E-002  0.70198225056218189     
   2.4605931999999999        0.0000000000000000       0.31634699720302295       0.74295292972160598        3.5554823929231129E-002  0.74380320064285566     
   2.5201376999999998        0.0000000000000000       0.36174269985013030       0.78662764453577261        3.3779399623392589E-002  0.78735258873443392     
   2.5841479999999999        0.0000000000000000       0.41338702066993205       0.83161750117305566        3.2322772865683622E-002  0.83224541446801836     
   2.6529590999999999        0.0000000000000000       0.47199121596230947       0.87460720785507839        3.2716811512316854E-002  0.87521891992094680     
   2.7269310999999998        0.0000000000000000       0.53794515045098246       0.90895195171398668        3.5320165610822303E-002  0.90963793051050890     
   2.8064509000000002        0.0000000000000000       0.61116448900630260       0.93584830533995000        4.1657269022008829E-002  0.93677498828161943     
   2.8709673000000002        0.0000000000000000       0.67225013776977549       0.97222754388336752        5.2090058588488197E-002  0.97362198582881099     
   2.9354836000000000        0.0000000000000000       0.73661363400794178       0.98454454074080799        4.7273319779469150E-002  0.98567881151290893     
   3.0000000000000000       0.10000000000000001       0.80365140049636785       0.97044216282013096        6.1371320835760433E-002  0.97238080524048776     
   3.0000000000000000       0.20499999999999999       0.81198382454916773       0.97472314912445501        8.2959411328394100E-002  0.97824714738508090     
   3.0000000000000000       0.31524999999999997       0.82217257305213964       0.97202372962477335       0.10266314515617248       0.97743022887928521     
   3.0000000000000000       0.43101250000000002       0.83481694083980240       0.96628441774208862       0.10546288267291791       0.97202263121434007     
   3.0000000000000000       0.55256313000000001       0.84663275061459198       0.96453399193664557        8.9897562614928511E-002  0.96871429914363605     
   3.0000000000000000       0.68019127999999995       0.85723049833498610       0.96255287894515507        7.7180695724161349E-002  0.96564222388940302     
   3.0000000000000000       0.78679418999999995       0.86412576524491092       0.96027536721460904        5.6002291608440335E-002  0.96190697967347605     
   3.0000000000000000       0.89339710000000006       0.86883446678816434       0.95328653547899556        2.9805485332995044E-002  0.95375237125864154     
   2.8500000000000001        1.0000000000000000       0.72649253278230774       0.90733552599494560       -4.3499415752724611E-003  0.90734595316463107     
   2.7000000000000002        1.0000000000000000       0.59720913596845304       0.82737639768297200        1.5224899990145766E-002  0.82751646571084092     
   2.5499999999999998        1.0000000000000000       0.48175140937134769       0.72571367432037881        2.6826492303210152E-002  0.72620933468585969     
   2.3999999999999999        1.0000000000000000       0.37925860762669200       0.62714741908210003        1.8094710982039373E-002  0.62740840273848963     
   2.2500000000000000        1.0000000000000000       0.29305290876526069       0.53511947656062175        2.6597860879794627E-002  0.53578008585416348     
   2.1000000000000001        1.0000000000000000       0.21966788148453617       0.44127513376343808        2.2553050972938107E-002  0.44185108779556953     
   1.9500000000000000        1.0000000000000000       0.15876203841216055       0.36415223264473368        1.5204867580564009E-002  0.36446952758534795     
   1.8000000000000000        1.0000000000000000       0.10882178419055134       0.30654374007923774        1.4321857256573126E-002  0.30687811941721249     
   1.6499999999999999        1.0000000000000000        6.6628183382090395E-002  0.25780533524477028        1.0074508829976394E-002  0.25800210582247901     
   1.5000000000000000        1.0000000000000000        3.0408501787366756E-002  0.22895276880116061        4.2212564166121220E-003  0.22899167964677777     
   1.3500000000000001        1.0000000000000000       -2.5040785283106663E-003  0.21585284471851862       -8.0797766418882306E-004  0.21585435691915683     
   1.2000000000000000        1.0000000000000000       -3.4596767238430373E-002  0.21845320790060715       -4.7422372528047006E-003  0.21850467467820406     
   1.0500000000000000        1.0000000000000000       -6.8718026064373508E-002  0.23944956321807326       -1.3561481886387727E-002  0.23983329025863129     
  0.90000000000000002        1.0000000000000000      -0.10704649537839649       0.28315961047277560       -1.7193518202770250E-002  0.28368112744996449     
  0.75000000000000000        1.0000000000000000      -0.15278261653379946       0.34363223686236910       -1.9623976895651884E-002  0.34419211885259143     
  0.59999999999999998        1.0000000000000000      -0.21065260533795552       0.42976775272718509       -4.0689457959137740E-002  0.43168964925416425     
  0.45000000000000001        1.0000000000000000      -0.28222579132226888       0.53350911880076002       -5.0382690654575915E-002  0.53588281868441923     
  0.29999999999999999        1.0000000000000000      -0.37257589515831502       0.66906995186939944       -6.9082258818693815E-002  0.67262690919856416     
  0.14999999999999999        1.0000000000000000      -0.48492395180969911       0.82969423148965471       -7.4171165900552810E-002  0.83300292893738137     
   0.0000000000000000       0.84999999999999998      -0.60999124916770109       0.93913139420286951      -0.16348850447706395       0.95325561455129781     
   0.0000000000000000       0.70750000000000002      -0.57364821935620647       0.90369823469071586      -0.32409130647462486       0.96005503712836449     
   0.0000000000000000       0.57212499999999999      -0.51511014208147443       0.89726597198454117      -0.54374979499700438        1.0491663662359025     
   0.0000000000000000       0.44351875000000002      -0.42879833927449623       0.86760742752353393      -0.81508393799056045        1.1904219731944652     
   0.0000000000000000       0.32134280999999998      -0.30635554381845292       0.73279723598664670       -1.1619617802477480        1.3737346788321918     
   0.0000000000000000       0.21422854000000000      -0.14379157913223842       0.39138123707727807       -2.0215004492806496        2.0590394214725491     
   0.0000000000000000       0.10711427000000000       0.14618274724630737      -0.28067912100676812       -3.2306819556438779        3.2428516258830102     
   0.0000000000000000        5.3557134999999999E-002  0.45094731543702593       -1.5206430651165446       -7.9710878182122018        8.1148380351759339     
  0.98651469999999997        2.4137379000000000E-002  -2.0113172490735402E-002   6.9337176850850515E-002  -1.4473268427022233E-002   7.0831628476315286E-002
   2.0034138000000001        1.7903275999999999E-002   6.5762962955371929E-002  0.26863607257090499        2.3435196390011959E-002  0.26965635152200468     
   1.7427423000000000       0.10100845999999999        2.3410137369237201E-002   9.9535967606117992E-002   1.9964550321619125E-002  0.10151843239939549     
   1.4838335000000000       0.12349456000000000        3.9849111752981630E-003   5.8202076412450579E-002   8.9545543008920109E-003   5.8886889385060572E-002
   1.2255172999999999        9.4545207000000006E-002  -8.7975966953898772E-003   4.4145231231826128E-002  -3.3327545572098593E-003   4.4270856027978499E-002
   1.9828832999999999        2.9680689000000000E-002   6.0909122662701709E-002  0.23676941537029089        1.0282294516037800E-002  0.23699257717342939     
   1.0081239000000000        2.3117167000000001E-002  -1.8812532626155086E-002   5.5623077777744556E-002  -8.7825334766317709E-003   5.6312162769131667E-002
   1.9628599000000000        3.8573008999999998E-002   5.6510843680078748E-002  0.21466947209584775        9.0338098795168763E-003  0.21485947028429817     
   1.2506413000000001        9.9757633999999998E-002  -7.7396169896705776E-003   4.3750189275411293E-002  -2.9634493554242659E-003   4.3850440062974026E-002
   1.7678917999999999        9.5956755000000005E-002   2.6013468203753234E-002  0.11145073742501710        1.6487897030329771E-002  0.11266373693901185     
   1.5094818999999999       0.12357335999999999        5.5452462559467033E-003   6.3257455497565007E-002   9.8630536947502123E-003   6.4021758053117717E-002
   1.7173231000000000       0.10567287000000000        2.1181963529348851E-002   9.0142190017306237E-002   2.0746943397432362E-002   9.2498919352889772E-002
   1.2003448999999999        8.8927437999999998E-002  -9.9254981340878221E-003   4.6267289901152704E-002  -3.4417023539283164E-003   4.6395122910607128E-002
   1.4579721999999999       0.12305844000000001        2.5451525750058560E-003   5.5193870040699755E-002   8.2384344150399566E-003   5.5805332107967683E-002
   1.0271269000000001        3.3768068999999998E-002  -1.7879777907466442E-002   5.2058824258386219E-002  -9.0773512883305218E-003   5.2844294768473327E-002
   1.9413621000000001        4.6815197000000003E-002   5.2228541015509881E-002  0.19445694165023891        7.1604191141784587E-003  0.19458872978118522     
   1.7929554999999999        9.0509242000000004E-002   2.8883728227833409E-002  0.12547711425753158        1.3153944090983897E-002  0.12616470365179941     
   1.1750920000000000        8.2844296999999997E-002  -1.1079521726267349E-002   4.7502884501168949E-002  -4.2757055549582038E-003   4.7694923146222777E-002
   1.2758790000000000       0.10455239000000000       -6.6385125479506485E-003   4.4988762339979720E-002  -1.7490718479335288E-003   4.5022749685158181E-002
   1.0507005000000000        4.3593109999999997E-002  -1.6793498288625471E-002   4.8566485839883169E-002  -8.6915965560926609E-003   4.9338092763395847E-002
   1.5351482000000001       0.12328952999999999        7.2124558940443693E-003   6.7654724312266226E-002   1.1364936392624075E-002   6.8602649372871444E-002
   1.9178078000000001        5.5192861000000003E-002   4.7897781315931094E-002  0.18033407953739458        7.3206637136778640E-003  0.18048260957723355     
   1.6915969000000000       0.10988583000000000        1.9018813033241981E-002   8.5652063860656491E-002   1.9960913462939787E-002   8.7947223434653971E-002
   1.8180869000000000        8.4592026000000001E-002   3.2128759322102463E-002  0.13974151405111862        1.1606193162166701E-002  0.14022266032641267     
   1.4318719000000000       0.12214309000000000        1.1231518957669788E-003   5.3882309522093802E-002   7.0504453325881938E-003   5.4341623630717317E-002
   1.1498309000000000        7.6206248000000004E-002  -1.2257943044046180E-002   4.8763079561867942E-002  -5.1476664260981650E-003   4.9034033058595550E-002
   1.0750211000000001        5.2659809000000002E-002  -1.5716681306355517E-002   4.7116652371921072E-002  -8.4958396239551599E-003   4.7876489236914836E-002
   1.8933295000000001        6.3347314000000002E-002   4.3723697549495233E-002  0.16811816574648755        1.0575273480575074E-002  0.16845044987518559     
   1.8432683000000001        7.8118222000000001E-002   3.5749222964418431E-002  0.15461401519422160        9.4556893373579556E-003  0.15490288491607770     
   1.1246784999999999        6.8958966999999996E-002  -1.3451413451381882E-002   4.9926565074318266E-002  -6.3157252788360874E-003   5.0324450179985734E-002
   1.0997269999999999        6.1103181999999999E-002  -1.4648051292770385E-002   4.8067749609291242E-002  -7.7494982085184218E-003   4.8688430607130358E-002
   1.8684002000000000        7.1031387000000001E-002   3.9772020428473942E-002  0.16371810154669275        1.0122022183529178E-002  0.16403070476937254     
   1.3013836999999999       0.10887439000000000       -5.4845213109350607E-003   4.6495229534505411E-002  -3.7799775459719119E-004   4.6496766035594612E-002
   1.5610231999999999       0.12252096000000000        9.0007299460507645E-003   7.2067777856214682E-002   1.2876540588719046E-002   7.3209083471012237E-002
   1.6656203999999999       0.11357789000000000        1.6930590922418932E-002   8.1666557885636148E-002   1.9102180855150763E-002   8.3870853043896298E-002
   1.4056369000000000       0.12065921000000000       -2.7634573799545234E-004   5.2729007941426147E-002   5.6979604504190902E-003   5.3035978653943223E-002
   1.3271752999999999       0.11267270000000000       -4.2693468878741356E-003   4.8269957400209007E-002   1.0865508761646527E-003   4.8282184915603051E-002
   1.5870945000000001       0.12118052999999999        1.0909525328014164E-002   7.6643304549972618E-002   1.4414342000098824E-002   7.7986982167767380E-002
   1.6394838000000000       0.11670484000000000        1.4910514310053909E-002   7.8352544224903592E-002   1.8517989218954492E-002   8.0511099304560407E-002
   1.3793816000000001       0.11858319000000000       -1.6489417314776232E-003   5.1671181932856552E-002   4.2210864402737651E-003   5.1843308276716148E-002
   1.3531995000000001       0.11591619000000000       -2.9894910477729800E-003   5.0180834597855738E-002   2.6435221281327029E-003   5.0250416616972264E-002
   1.6132784000000000       0.11924269000000000        1.2945737191677527E-002   7.8543863579765227E-002   1.6712550146237688E-002   8.0302228103753634E-002
   2.0282667000000001        2.4708758000000001E-002   7.3582258018552352E-002  0.33760902774325785        4.4215657924768136E-002  0.34049211447472311     
  0.95956456999999995        2.4662488999999999E-002  -2.2209865384754373E-002   8.1757204353097579E-002  -1.9243823980531538E-002   8.3991459238590679E-002
   2.0046058000000002        4.3216828999999998E-002   6.7076386764819571E-002  0.29430888724380416        5.1059340774974787E-002  0.29870516800193003     
   1.0035529000000001        4.8143670999999999E-002  -1.9485139107838927E-002   6.5731421290341416E-002  -2.3513741523442367E-002   6.9810570727359092E-002
   1.7857362000000001       0.11729631000000000        2.8652529250270082E-002  0.12369196534627959        4.2509967643882832E-002  0.13079296479669386     
   1.9822588999999999        5.5958014000000000E-002   6.1593884364479864E-002  0.25918358561853427        4.9920110689437087E-002  0.26394724568618960     
   1.2074767000000000       0.11570113000000000       -9.7969666220060342E-003   4.8275482873299636E-002  -1.3341093349690357E-002   5.0084997937659921E-002
   1.0293162000000000        6.0062979000000002E-002  -1.8187673856693794E-002   5.7458679730829521E-002  -2.3717106772954074E-002   6.2161089357328211E-002
   1.9604166999999999        6.5535313999999997E-002   5.6766330306237026E-002  0.23010362115627525        4.7810993659969853E-002  0.23501822819514304     
   1.8112018000000001       0.11143292000000000        3.1852344205043806E-002  0.14206708965621800        3.9692706376767341E-002  0.14750786047834924     
   1.1819329000000001       0.10969199000000000       -1.0994193160503693E-002   5.1062364891459384E-002  -1.4192354995855737E-002   5.2998000421119053E-002
   1.2329064999999999       0.12141087000000000       -8.6949186398156252E-003   4.6757070073382700E-002  -1.2158546871706656E-002   4.8312046777990149E-002
   1.0538158000000000        7.0677363000000007E-002  -1.7084203154700384E-002   5.5259820757282363E-002  -2.4405292378475472E-002   6.0409155648840578E-002
   1.9375316000000000        7.4173926000000001E-002   5.2200210576556515E-002  0.20750458519103271        4.5659397724447291E-002  0.21246866469167119     
   1.8368199999999999       0.10513226000000001        3.5415158263113110E-002  0.15715593790399807        3.9841906675848436E-002  0.16212762363660399     
   1.1562157000000000       0.10324701000000000       -1.2225917019495759E-002   5.2963346332930310E-002  -1.6193294831081936E-002   5.5383561209697119E-002
   1.0792508999999999        8.0044793000000003E-002  -1.5931751715751293E-002   5.3383514777310202E-002  -2.2487529261529898E-002   5.7926579583706304E-002
   1.9132586000000000        8.2602917999999997E-002   4.7794537503031261E-002  0.18899611465784530        4.5087018770844353E-002  0.19429969278772388     
   1.8625198000000001        9.8237914999999995E-002   3.9373090958378085E-002  0.17353269940792021        3.9991525332327658E-002  0.17808121703932114     
   1.7603012000000000       0.12284028000000000        2.6019833970982634E-002  0.11063470320803097        4.5736402762118086E-002  0.11971573034295777     
   1.1304514999999999        9.6201507000000006E-002  -1.3489480787055599E-002   5.5210777200761112E-002  -1.8418611427566022E-002   5.8202020291668127E-002
   1.1047932000000000        8.8482221000000000E-002  -1.4775655868793617E-002   5.4390984289818138E-002  -2.0479232404396867E-002   5.8118655626989014E-002
   1.8880999000000001        9.0696362000000003E-002   4.3656816484706734E-002  0.17846107691229174        4.3492598604629271E-002  0.18368440899019792     
   1.4967052000000001       0.14847339000000001        5.0550112879838606E-003   6.2041804376172342E-002   1.5860834002964098E-002   6.4037110689980539E-002
  0.97468200000000005        4.8965760999999997E-002  -2.1603797567847614E-002   7.9340432971512831E-002  -3.1251662433553276E-002   8.5273505316527748E-002
   1.2584479000000000       0.12681819999999999       -7.5600314446959641E-003   4.7450914188338543E-002  -9.6499223604008481E-003   4.8422208322946532E-002
   1.7346640000000000       0.12806755000000000        2.3558991831482006E-002  0.10112418646887142        4.5187460128863551E-002  0.11076103846519637     
   1.5225869999999999       0.14854459000000000        6.7443347623911557E-003   6.8065996663968370E-002   1.8520515829227615E-002   7.0540693280120401E-002
   1.4706862000000001       0.14843579000000001        3.5310236926017675E-003   5.7847513156450689E-002   1.3753210884533545E-002   5.9459949445153308E-002
   1.2842985000000000       0.13178744000000001       -6.3703504939393212E-003   4.8554962287263796E-002  -7.0303063548704976E-003   4.9061283820961539E-002
   1.7086541000000000       0.13288062000000000        2.1246974100580775E-002   9.4350601917110033E-002   4.2316299733406899E-002  0.10340553807823109     