 TITLE = "output.dat"
 VARIABLES = "X" "Y" "phi" "Vx" "Vy" "Vt"
 ZONE NODES=           9 ,ELEMENTS=           8 ,DATAPACKING=POINT,ZONETYPE=FETRIANGLE
   0.0000000000000000        0.0000000000000000       -1.0726246343954078E+155   1.0000000000000000        0.0000000000000000        1.0000000000000000     
  0.50000000000000000        0.0000000000000000       -7.1508308959693847E+154   1.0000000000000000        0.0000000000000000        1.0000000000000000     
   1.0000000000000000        0.0000000000000000        9.0000000000000338        1.0000000000000000        0.0000000000000000        1.0000000000000000     
   0.0000000000000000       0.50000000000000000        4.8333333333333330        1.0000000000000000        0.0000000000000000        1.0000000000000000     
  0.50000000000000000       0.50000000000000000        2.3333333333333335        1.0000000000000000        0.0000000000000000        1.0000000000000000     
   1.0000000000000000       0.50000000000000000        2.5000000000000000        1.0000000000000000        0.0000000000000000        1.0000000000000000     
   0.0000000000000000        1.0000000000000000        9.0000000000000000        1.0000000000000000        0.0000000000000000        1.0000000000000000     
  0.50000000000000000        1.0000000000000000        3.8333333333333335        1.0000000000000000        0.0000000000000000        1.0000000000000000     
   1.0000000000000000        1.0000000000000000        5.2500000000000000        1.0000000000000000        0.0000000000000000        1.0000000000000000     
           1           5           4
           1           2           5
           2           6           5
           2           3           6
           4           8           7
           4           5           8
           5           9           8
           5           6           9
