 TITLE = "output.dat"
 VARIABLES = "X" "Y" "phi" "Vx" "Vy" "Vt"
 ZONE NODES=           9 ,ELEMENTS=           8 ,DATAPACKING=POINT,ZONETYPE=FETRIANGLE
   0.0000000000000000        0.0000000000000000        23.500000000000881       0.99999999999868905       -1.7763568394002505E-014  0.99999999999868905     
  0.50000000000000000        0.0000000000000000        23.999999999999883       0.99999999999840361       -1.5395092608135505E-013  0.99999999999840361     
   1.0000000000000000        0.0000000000000000        24.499999999999204       0.99999999999953815        4.6185277824406512E-013  0.99999999999953815     
   0.0000000000000000       0.50000000000000000        23.500000000000856       0.99999999999896494        1.4210854715202004E-013  0.99999999999896494     
  0.50000000000000000       0.50000000000000000        24.000000000000004       0.99999999999840128       -1.5868787765308903E-013  0.99999999999840128     
   1.0000000000000000       0.50000000000000000        24.499999999999147       0.99999999999896971        1.5868787765308903E-013  0.99999999999896971     
   0.0000000000000000        1.0000000000000000        23.500000000000774       0.99999999999953815        4.6185277824406512E-013  0.99999999999953815     
  0.50000000000000000        1.0000000000000000        24.000000000000114       0.99999999999839895       -1.5631940186722204E-013  0.99999999999839895     
   1.0000000000000000        1.0000000000000000        24.499999999999133       0.99999999999868905        3.5527136788005009E-015  0.99999999999868905     
           1           5           4
           1           2           5
           2           6           5
           2           3           6
           4           8           7
           4           5           8
           5           9           8
           5           6           9
