 TITLE = "output.dat"
 VARIABLES = "X" "Y" "phi" "Vx" "Vy" "Vt"
 ZONE NODES=           9 ,ELEMENTS=           8 ,DATAPACKING=POINT,ZONETYPE=FETRIANGLE
   0.0000000000000000        0.0000000000000000      -0.49999999999999079       0.99999999999998557        4.2780732479631792E-016  0.99999999999998557     
  0.50000000000000000        0.0000000000000000        9.5413451792446550E-016  0.99999999999998235       -1.7293587860220918E-015  0.99999999999998235     
   1.0000000000000000        0.0000000000000000       0.50000000000040046       0.99999999999999500        5.1070259132757201E-015  0.99999999999999500     
   0.0000000000000000       0.50000000000000000      -0.49999999999985817       0.99999999999998923        2.1109706851951097E-015  0.99999999999998923     
  0.50000000000000000       0.50000000000000000        9.9407129539474643E-014  0.99999999999998279       -1.5579421295645145E-015  0.99999999999998279     
   1.0000000000000000       0.50000000000000000       0.50000000000030365       0.99999999999998879        1.4271277071183481E-015  0.99999999999998879     
   0.0000000000000000        1.0000000000000000      -0.49999999999991540       0.99999999999999500        4.8849813083506888E-015  0.99999999999999500     
  0.50000000000000000        1.0000000000000000       -2.3803886393997164E-014  0.99999999999998324       -1.4975477755694525E-015  0.99999999999998324     
   1.0000000000000000        1.0000000000000000       0.50000000000003053       0.99999999999998623       -2.5024062663986530E-016  0.99999999999998623     
           1           5           4
           1           2           5
           2           6           5
           2           3           6
           4           8           7
           4           5           8
           5           9           8
           5           6           9
