 TITLE = "channel.dat"
 VARIABLES = "X" "Y" "phi" "Vx" "Vy" "Vt"
 ZONE NODES=         839 ,ELEMENTS=        1559 ,DATAPACKING=POINT,ZONETYPE=FETRIANGLE
   0.0000000000000000        0.0000000000000000        1.0000000000000000       -5.6524306298341207       -6.5644157842228417        8.6626512461971448     
   1.0000000000000000        0.0000000000000000       -4.4756696575134106E-002   9.9047183845110146E-002   5.4997108631215513E-003   9.9199755278049875E-002
   2.0000000000000000        0.0000000000000000       0.15449408833564277       0.36783682942705903        2.1503592148901496E-003  0.36784311482982035     
   3.0000000000000000        0.0000000000000000       0.96711719657065154       0.98073565883791591        3.2414260584186401E-002  0.98127117393993624     
   3.0000000000000000        1.0000000000000000        1.0224249307804347       0.96219944592387574        2.5315244051141049E-003  0.96220277610908356     
   0.0000000000000000        1.0000000000000000      -0.65722300953632007       0.92132886592380148       -8.3374069858715580E-002  0.92509357078581200     
  0.10000000000000001        0.0000000000000000       0.22316407650831016       -3.8844251855232823       -2.1415592721403067        4.4356549841052457     
  0.19250000000000000        0.0000000000000000        4.4579819934928586E-002  -1.3073369180308936      -0.48351246413921078        1.3938845433623572     
  0.27806249999999999        0.0000000000000000       -3.2831894386464729E-002 -0.65168959808821569      -0.21265149965383770       0.68550710613487176     
  0.35720781000000001        0.0000000000000000       -6.9861984006543157E-002 -0.33766249372048623      -0.11598307190852193       0.35702665535625594     
  0.43041722999999998        0.0000000000000000       -8.7145991447254281E-002 -0.16017122620348725       -7.2111568459673925E-002  0.17565562902805854     
  0.49813593000000000        0.0000000000000000       -9.3802347540067554E-002  -5.0752870231219278E-002  -4.8955883691679615E-002   7.0516185267924456E-002
  0.56077573999999997        0.0000000000000000       -9.4473223633165682E-002   2.0267767568311088E-002  -3.5548632309518692E-002   4.0920504166987469E-002
  0.61871756000000000        0.0000000000000000       -9.1734011587882511E-002   6.8023848240134549E-002  -2.7443545372713540E-002   7.3351156173717152E-002
  0.67231373999999999        0.0000000000000000       -8.7090319811302927E-002  0.10055612798068053       -2.1952362819579463E-002  0.10292444368481890     
  0.72189020999999998        0.0000000000000000       -8.1506728877476189E-002  0.12128186156344425       -1.8241579865446000E-002  0.12264601575380223     
  0.76774845000000003        0.0000000000000000       -7.5581627158753092E-002  0.13465541996737004       -1.5995047016836298E-002  0.13560207836039831     
  0.81016730999999997        0.0000000000000000       -6.9671572045336999E-002  0.14185818115915430       -1.4006673494998397E-002  0.14254799354666109     
  0.84940475999999998        0.0000000000000000       -6.4047842275346725E-002  0.14320341900193792       -1.2471851265399611E-002  0.14374549136522802     
  0.88569940999999996        0.0000000000000000       -5.8885278358120560E-002  0.14056602687485770       -1.1737052015417564E-002  0.14105518884959828     
  0.91927194999999995        0.0000000000000000       -5.4245036154057430E-002  0.13531245066584727       -1.1311803169681821E-002  0.13578444754885213     
  0.94618130000000000        0.0000000000000000       -5.0729762959485836E-002  0.12636791318654669       -9.3124362955866423E-003  0.12671057948285913     
  0.97309064999999995        0.0000000000000000       -4.7513735360874804E-002  0.11399207292853748       -3.0540063571947228E-003  0.11403297613135770     
   1.0233764000000001        8.9213888000000009E-003  -4.2591332039571342E-002   9.3713212597535872E-002   1.4660158843870575E-002   9.4852972924829693E-002
   1.0469542000000001        1.7794846000000000E-002  -4.0176569654222921E-002   9.8351076244597796E-002   1.9026479964626586E-002  0.10017455334722000     
   1.0707610000000001        2.6501363999999999E-002  -3.7611680941543955E-002  0.10249901718714551        2.0834222472006152E-002  0.10459499677491173     
   1.0948145000000000        3.4913876000000003E-002  -3.4908949300880038E-002  0.10724793594458566        2.1369132598007351E-002  0.10935611364878130     
   1.1191207000000001        4.2898775000000000E-002  -3.2044146977891166E-002  0.11328617092009401        2.2429215568398206E-002  0.11548517754565055     
   1.1436691000000001        5.0329273000000001E-002  -2.9033669928569837E-002  0.11697919710320533        2.3076901320085885E-002  0.11923370299310318     
   1.1683987000000000        5.7169742000000003E-002  -2.5937012163734507E-002  0.11975565402456204        2.2772304889804359E-002  0.12190157726971711     
   1.1932263000000001        6.3435231999999994E-002  -2.2783568714154333E-002  0.12207941463031280        2.2217776242859959E-002  0.12408470114263734     
   1.2180712000000000        6.9146917000000002E-002  -1.9589937045434550E-002  0.12423890500564280        2.1662769432469267E-002  0.12611336605009582     
   1.2428565000000000        7.4330735999999994E-002  -1.6366463691146298E-002  0.12657147398526322        2.0801510821783591E-002  0.12826940741763385     
   1.2675107000000001        7.9014114999999996E-002  -1.3097870655843816E-002  0.13048933664543486        2.0175915904374606E-002  0.13203989760957111     
   1.2923861999999999        8.3271600000000001E-002  -9.7060055508307857E-003  0.13495324185879695        1.9939719763962815E-002  0.13641836354561768     
   1.3175848999999999        8.7100485000000005E-002  -6.1631607164000296E-003  0.13972573954275172        1.9713498156770568E-002  0.14110954716228766     
   1.3430394000000001        9.0468325000000002E-002  -2.4717927964552733E-003  0.14441183335542157        1.9762135036171809E-002  0.14575774282782353     
   1.3686776000000000        9.3346631999999999E-002   1.3398639695000642E-003  0.14779305915631955        1.9410243828955717E-002  0.14906222157301588     
   1.3944234000000000        9.5712585000000003E-002   5.2445745314601633E-003  0.15138195630105258        1.8497890661244357E-002  0.15250792980186029     
   1.4201950999999999        9.7556928000000001E-002   9.2368679890296578E-003  0.15520748933552783        1.7496389426459997E-002  0.15619055153497707     
   1.4459089000000001        9.8880380000000004E-002   1.3312635548665845E-002  0.15948622652751179        1.6250333274664873E-002  0.16031197641948802     
   1.4714821000000000        9.9689456999999995E-002   1.7478687883622380E-002  0.16509548748570477        1.3816100889428551E-002  0.16567258261984499     
   1.4968341999999999        9.9996180000000004E-002   2.1800239359138246E-002  0.17505068510821198        1.1870218147754200E-002  0.17545268432181269     
   1.5218877000000000        9.9817161000000001E-002   2.6310477293593159E-002  0.18418838537290588        1.0951132569896284E-002  0.18451365426667352     
   1.5471604000000001        9.9149427999999998E-002   3.1078346037452312E-002  0.19267497062228628        9.4759549984709691E-003  0.19290784853766818     
   1.5726621999999999        9.7976102999999995E-002   3.6096249414213584E-002  0.20053109492112864        7.8683019248803731E-003  0.20068540107702848     
   1.5983147000000000        9.6285061000000005E-002   4.1330860373687058E-002  0.20703259820959116        7.6854031673281101E-003  0.20717519673758822     
   1.6240368999999999        9.4069571000000005E-002   4.6666195001909203E-002  0.20772732290588991        6.4430921784570444E-003  0.20782722179365232     
   1.6497466000000001        9.1330621000000001E-002   5.2053592989600939E-002  0.21159363334301076        2.7391678500796185E-003  0.21161136243549727     
   1.6753639000000000        8.8083966000000000E-002   5.7553765115571622E-002  0.21722508443065727       -3.4229238309210378E-004  0.21722535411406677     
   1.7008118999999999        8.4353340999999998E-002   6.3184766660136601E-002  0.22391190533640368       -3.6492068689652373E-003  0.22394163985768950     
   1.7260165000000001        8.0167355999999995E-002   6.8966403746915678E-002  0.23243660166019495       -9.6860712577456435E-003  0.23263833254163052     
   1.7509077000000000        7.5558787000000002E-002   7.5034886124677957E-002  0.24972217899869689       -1.6536725355890822E-002  0.25026911509284033     
   1.7754369999999999        7.0552659000000004E-002   8.1470849154005098E-002  0.26562920543054958       -2.1815628083026648E-002  0.26652353818438257     
   1.8000913000000001        6.5024534999999994E-002   8.8385709994052486E-002  0.28221542786099812       -2.8780954282045430E-002  0.28367920447602679     
   1.8248006000000001        5.8943968999999999E-002   9.5778431639589254E-002  0.29778752484850940       -3.5553289732226948E-002  0.29990239473232833     
   1.8494898000000000        5.2284246999999999E-002  0.10358958034555121       0.31079384181240066       -3.9407648814221895E-002  0.31328226073874110     
   1.8740797000000000        4.5023485000000002E-002  0.11158869056725512       0.31182053167328999       -4.2869143102941806E-002  0.31475356614881067     
   1.8984976000000000        3.7167777999999999E-002  0.11965763289171874       0.31639177413114056       -5.0714469499275931E-002  0.32043051064847689     
   1.9227114999999999        2.8827656000000000E-002  0.12785818778445629       0.32192409473821892       -5.4361672441397613E-002  0.32648172108656798     
   1.9467113000000000        2.0141470000000002E-002  0.13608832825183434       0.33059749695036084       -5.3772969560391022E-002  0.33494214014540868     
   1.9645002000000000        1.3507541000000000E-002  0.14243627558299604       0.34351984989142598       -5.3843190471706819E-002  0.34771392901291764     
   1.9822579000000000        6.7777391999999997E-003  0.14894881103758778       0.34024404590786295       -3.5194283828461563E-002  0.34205942230839109     
   2.0249999999999999        0.0000000000000000       0.16465635501069720       0.45433962573739001        2.1704577361235562E-002  0.45485776259576077     
   2.0518749999999999        0.0000000000000000       0.17807216503563972       0.52221751013181794        3.3120983987071619E-002  0.52326678422058026     
   2.0807655999999999        0.0000000000000000       0.19399877770553423       0.56821533907919219        3.6148579187175220E-002  0.56936402357554416     
   2.1118229999999998        0.0000000000000000       0.21228245329128526       0.60254220744975828        3.7355561420906250E-002  0.60369905559599701     
   2.1452097999999999        0.0000000000000000       0.23295351716669058       0.63174848757020907        3.7813056515742356E-002  0.63287911862401447     
   2.1811004999999999        0.0000000000000000       0.25611423708783171       0.65736750556187629        3.6659697853362955E-002  0.65838892063532128     
   2.2196829999999999        0.0000000000000000       0.28202599480174018       0.68538121743519886        3.5237562484349783E-002  0.68628645551460055     
   2.2611593000000001        0.0000000000000000       0.31100862781623362       0.71269893474938062        3.4498991150675083E-002  0.71353342737626269     
   2.3057462000000002        0.0000000000000000       0.34337296565598258       0.74040312941542341        3.3279010460242814E-002  0.74115065039799111     
   2.3536771999999999        0.0000000000000000       0.37950057805896764       0.76901215141806512        3.1982895769923463E-002  0.76967694174274892     
   2.4052030000000002        0.0000000000000000       0.41981293344364412       0.79797193188042792        3.0613095281822631E-002  0.79855893061922256     
   2.4605931999999999        0.0000000000000000       0.46475862378338667       0.82748361549712957        2.8917077957897053E-002  0.82798872656203748     
   2.5201376999999998        0.0000000000000000       0.51484954098738123       0.85783698657930163        2.7018118053033037E-002  0.85826235746803237     
   2.5841479999999999        0.0000000000000000       0.57066293910174759       0.88881256767730921        2.5460374164172114E-002  0.88917715395398633     
   2.6529590999999999        0.0000000000000000       0.63277573400884413       0.91806724007277030        2.5357663863049665E-002  0.91841737157537751     
   2.7269310999999998        0.0000000000000000       0.70153755065524681       0.94084982415414731        2.6945250613481662E-002  0.94123559119994671     
   2.8064509000000002        0.0000000000000000       0.77696112147920948       0.95836164347963904        3.1232088223056873E-002  0.95887042035291070     
   2.8709673000000002        0.0000000000000000       0.83924803610527055       0.98300628652703359        3.8503321482013061E-002  0.98376006481093536     
   2.9354836000000000        0.0000000000000000       0.90380107674676602       0.99074111703835299        3.5366248341944226E-002  0.99137214632658888     
   3.0000000000000000       0.10000000000000001       0.97031603686503520       0.97935592940484717        4.6872941484545037E-002  0.98047698040486686     
   3.0000000000000000       0.20499999999999999       0.97672614957498327       0.98257251201857776        6.4421115802104120E-002  0.98468209160910725     
   3.0000000000000000       0.31524999999999997       0.98470102534733006       0.98016166477171474        8.0598224132090723E-002  0.98346985862369263     
   3.0000000000000000       0.43101250000000002       0.99465727284328054       0.97561247449586908        8.3582323440428971E-002  0.97918624642284124     
   3.0000000000000000       0.55256313000000001        1.0040834760197774       0.97371338645350947        7.2106874129063483E-002  0.97637961892668890     
   3.0000000000000000       0.68019127999999995        1.0125938639331169       0.97187996253668008        6.2042391136811315E-002  0.97385826477895221     
   3.0000000000000000       0.78679418999999995        1.0181371333026794       0.96996178722822257        4.4951929693444033E-002  0.97100285512769324     
   3.0000000000000000       0.89339710000000006        1.0218940821293969       0.96445629045892778        2.3987898011194247E-002  0.96475455710599844     
   2.8500000000000001        1.0000000000000000       0.87783403308382157       0.92894421694604279       -2.3276962706352371E-003  0.92894713324678757     
   2.7000000000000002        1.0000000000000000       0.74374166569662203       0.86689337089576002        1.2805787937075921E-002  0.86698794957467717     
   2.5499999999999998        1.0000000000000000       0.62048466566938343       0.78668711291679616        2.2301970126306091E-002  0.78700317121399110     
   2.3999999999999999        1.0000000000000000       0.50761058414665139       0.70650719665319128        1.5984464018697717E-002  0.70668799481292743     
   2.2500000000000000        1.0000000000000000       0.40812551205882341       0.62942858870608975        2.3832728577554772E-002  0.62987962916099394     
   2.1000000000000001        1.0000000000000000       0.31969382868869017       0.54668298800289772        2.1525152079721326E-002  0.54710659066020351     
   1.9500000000000000        1.0000000000000000       0.24249830532289127       0.47497717343176055        1.5893946159802181E-002  0.47524302499432375     
   1.8000000000000000        1.0000000000000000       0.17575649848818020       0.41800478105638050        1.5631773044767525E-002  0.41829696307111258     
   1.6499999999999999        1.0000000000000000       0.11703120311722072       0.36525108564595149        1.2348266330478943E-002  0.36545975872442460     
   1.5000000000000000        1.0000000000000000        6.5091767401775427E-002  0.32954312087831783        6.4783724831148576E-003  0.32960679275198740     
   1.3500000000000001        1.0000000000000000        1.7675120842357714E-002  0.30763227598114673        1.1828636067303428E-003  0.30763455006168045     
   1.2000000000000000        1.0000000000000000       -2.7409317613293200E-002  0.30051725745324037       -2.1115165448781603E-003  0.30052467540842043     
   1.0500000000000000        1.0000000000000000       -7.2877154708361619E-002  0.30954290757842257       -9.6628290012018784E-003  0.30969369043687400     
  0.90000000000000002        1.0000000000000000      -0.12094473323521247       0.34077990278864728       -1.4379429108126550E-002  0.34108314254169103     
  0.75000000000000000        1.0000000000000000      -0.17456156253918886       0.38863946310826297       -1.8108185013722213E-002  0.38906109886439444     
  0.59999999999999998        1.0000000000000000      -0.23808740935334607       0.46133568786763490       -3.8218970855417519E-002  0.46291609027290370     
  0.45000000000000001        1.0000000000000000      -0.31362782214029800       0.55496517202686491       -4.8744450646933030E-002  0.55710175339131629     
  0.29999999999999999        1.0000000000000000      -0.40644469174304670       0.68142903091775320       -6.7971141764874218E-002  0.68481063097058359     
  0.14999999999999999        1.0000000000000000      -0.52010948983204452       0.83569428334320495       -7.4027194878551264E-002  0.83896660290746972     
   0.0000000000000000       0.84999999999999998      -0.64580270924180738       0.94337648417541065      -0.16342589800502091       0.95742739413174638     
   0.0000000000000000       0.70750000000000002      -0.60942093436985145       0.90639146848912500      -0.32417640715187263       0.96261925863955633     
   0.0000000000000000       0.57212499999999999      -0.55072069685154224       0.89857414448821760      -0.54735285016873059        1.0521552336659097     
   0.0000000000000000       0.44351875000000002      -0.46349603863121891       0.86742554261053506      -0.82718031576272866        1.1986051671666149     
   0.0000000000000000       0.32134280999999998      -0.33881135373776899       0.72846304535681861       -1.1847969284195008        1.3908278721836194     
   0.0000000000000000       0.21422854000000000      -0.17272038283097005       0.37812337456957495       -2.0685937669586782        2.1028688639799147     
   0.0000000000000000       0.10711427000000000       0.12431856532005425      -0.31147569730335228       -3.3108407063820513        3.3254598618908351     
   0.0000000000000000        5.3557134999999999E-002  0.43683583713996871       -1.5833845736571168       -8.1752079781708424        8.3271322911578345     
  0.98651469999999997        2.4137379000000000E-002  -4.6054515196448459E-002  0.11213095846242049       -4.9866333776622512E-003  0.11224178525907491     
   2.0034138000000001        1.7903275999999999E-002  0.15578830817846423       0.40009291623911841        8.1704877345877575E-003  0.40017633425096899     
   1.7427423000000000       0.10100845999999999        7.2652616542768542E-002  0.24291344072524201        8.7280811090628581E-003  0.24307019374004302     
   1.4838335000000000       0.12349456000000000        1.9848336598538439E-002  0.16847541621640200        1.9640170562965228E-002  0.16961633815476695     
   1.2255172999999999        9.4545207000000006E-002  -1.8113954413734437E-002  0.12549126162170871        1.7284223865815240E-002  0.12667596906300641     
   1.9828832999999999        2.9680689000000000E-002  0.14794801671444852       0.37251163056035358       -1.6413036734830723E-002  0.37287303828192281     
   1.0081239000000000        2.3117167000000001E-002  -4.3812164920148597E-002  0.10017784532990377        4.8673217958621314E-003  0.10029601944447546     
   1.9628599000000000        3.8573008999999998E-002  0.14051783199769366       0.35543211557849302       -2.1923771455605621E-002  0.35610762493864245     
   1.2506413000000001        9.9757633999999998E-002  -1.4854639078841153E-002  0.12852218792111011        1.7431812666614768E-002  0.12969896252812932     
   1.7678917999999999        9.5956755000000005E-002   7.9013516884175725E-002  0.25926422059481796        1.0085138321052594E-003  0.25926618210014968     
   1.5094818999999999       0.12357335999999999        2.4332324438161645E-002  0.17958071371691009        1.8770238684799857E-002  0.18055900586611343     
   1.7173231000000000       0.10567287000000000        6.6817736289722804E-002  0.22924479626508781        1.2858212212893003E-002  0.22960511805256739     
   1.2003448999999999        8.8927437999999998E-002  -2.1348065853673760E-002  0.12382292088467607        1.7415694682412979E-002  0.12504168168128488     
   1.4579721999999999       0.12305844000000001        1.5636341845742516E-002  0.16080331790822416        2.0885480598147172E-002  0.16215397112037985     
   1.0271269000000001        3.3768068999999998E-002  -4.1807321890627726E-002  0.10229456033174116        8.8100188551013398E-003  0.10267323655993062     
   1.9413621000000001        4.6815197000000003E-002  0.13290550920146771       0.33899424219426427       -2.5652026075578427E-002  0.33996341374131078     
   1.7929554999999999        9.0509242000000004E-002   8.5734653745123249E-002  0.27716755207922877       -6.3277684028475462E-003  0.27723977452478221     
   1.1750920000000000        8.2844296999999997E-002  -2.4549300775564734E-002  0.12187966829951674        1.7170953438001173E-002  0.12308328557026023     
   1.2758790000000000       0.10455239000000000       -1.1481793660447720E-002  0.13269604196726731        1.8099857717926337E-002  0.13392477143227816     
   1.0507005000000000        4.3593109999999997E-002  -3.9288770584225537E-002  0.10405730133802049        1.1506981942488554E-002  0.10469160709042707     
   1.5351482000000001       0.12328952999999999        2.9038497133003754E-002  0.18836216306078149        1.8908469780071022E-002  0.18930883418995612     
   1.9178078000000001        5.5192861000000003E-002  0.12485142566791148       0.32845375364452833       -2.5361253239963855E-002  0.32943142146595866     
   1.6915969000000000       0.10988583000000000        6.1083026347490334E-002  0.22203110091969672        1.4791292845989915E-002  0.22252323950470518     
   1.8180869000000000        8.4592026000000001E-002   9.2955639759187664E-002  0.29409367627990207       -1.1149594317364560E-002  0.29430495048719391     
   1.4318719000000000       0.12214309000000000        1.1485848014255715E-002  0.15654031912473154        2.1178790118574355E-002  0.15796649221451811     
   1.1498309000000000        7.6206248000000004E-002  -2.7708973911613245E-002  0.11980582930153841        1.6774220729214799E-002  0.12097442380809995     
   1.0750211000000001        5.2659809000000002E-002  -3.6612904822754019E-002  0.10735724392811535        1.3118447973638545E-002  0.10815577423826211     
   1.8933295000000001        6.3347314000000002E-002  0.11675388537122872       0.31901380890706005       -2.0109097476099898E-002  0.31964697100816319     
   1.8432683000000001        7.8118222000000001E-002  0.10064423361719399       0.31034011072804824       -1.6665901108433613E-002  0.31078728511065784     
   1.1246784999999999        6.8958966999999996E-002  -3.0805436232570534E-002  0.11738646863509036        1.5945540127061165E-002  0.11846452324878015     
   1.0997269999999999        6.1103181999999999E-002  -3.3813287720890844E-002  0.11223030075930131        1.4528182019471385E-002  0.11316672868521967     
   1.8684002000000000        7.1031387000000001E-002  0.10878757558937076       0.31808055340346664       -1.8496773959656085E-002  0.31861790455084316     
   1.3013836999999999       0.10887439000000000       -7.9696313273569450E-003  0.13718745931445314        1.8815104945498387E-002  0.13847168362977630     
   1.5610231999999999       0.12252096000000000        3.3996153562924986E-002  0.19674138820408044        1.8773882504132547E-002  0.19763509935420798     
   1.6656203999999999       0.11357789000000000        5.5474434773738222E-002  0.21524856261365582        1.6601313216777130E-002  0.21588781185552475     
   1.4056369000000000       0.12065921000000000        7.4093045048925985E-003  0.15261203058411840        2.1151131341383689E-002  0.15407077021949478     
   1.3271752999999999       0.11267270000000000       -4.3058579913777340E-003  0.14203064056329529        1.9547553511234727E-002  0.14336948666677499     
   1.5870945000000001       0.12118052999999999        3.9196556526646158E-002  0.20501182809803414        1.8435416212403209E-002  0.20583904933472277     
   1.6394838000000000       0.11670484000000000        4.9995555498431841E-002  0.20920328011476191        1.8841506558733831E-002  0.21005002923155794     
   1.3793816000000001       0.11858319000000000        3.4163192138245532E-003  0.14896521791788569        2.0991200255401181E-002  0.15043691913052970     
   1.3531995000000001       0.11591619000000000       -4.8482867844917295E-004  0.14607893039804731        2.0422837381975003E-002  0.14749964811133667     
   1.6132784000000000       0.11924269000000000        4.4638400627544490E-002  0.20873623142870690        1.9099364934049474E-002  0.20960820607014097     
   2.0282667000000001        2.4708758000000001E-002  0.16696963852131197       0.48135600106858112        3.8509719628676289E-002  0.48289398243363435     
  0.95956456999999995        2.4662488999999999E-002  -4.9286767852187885E-002  0.12438870140819708       -1.2560321103273622E-002  0.12502124101221740     
   2.0046058000000002        4.3216828999999998E-002  0.15689172332188608       0.43792670003676165        3.7792459451287119E-002  0.43955439321711370     
   1.0035529000000001        4.8143670999999999E-002  -4.4340613034049944E-002  0.11378938777539586       -8.5483651907398688E-003  0.11411003162620570     
   1.7857362000000001       0.11729631000000000        8.4031757926851899E-002  0.27240654007516235        3.5212865214035965E-002  0.27467302188657500     
   1.9822588999999999        5.5958014000000000E-002  0.14796228209170656       0.40506913238524711        3.1842197031555664E-002  0.40631875113404903     
   1.2074767000000000       0.11570113000000000       -2.0095502632509855E-002  0.12657364545625049        9.2347969142875484E-003  0.12691008312239313     
   1.0293162000000000        6.0062979000000002E-002  -4.1532129844146753E-002  0.11088778419564981       -5.2359602715352019E-003  0.11101133259170479     
   1.9604166999999999        6.5535313999999997E-002  0.13973607495701623       0.37802731066036105        2.7445688074969048E-002  0.37902231253451774     
   1.8112018000000001       0.11143292000000000        9.1163873436106380E-002  0.29531559872201729        2.8300755689920357E-002  0.29666856190227520     
   1.1819329000000001       0.10969199000000000       -2.3369445553964082E-002  0.12565382841383096        8.0871118544232658E-003  0.12591380374366595     
   1.2329064999999999       0.12141087000000000       -1.6818560988245430E-002  0.12864749475266402        1.0728607598845792E-002  0.12909407781593518     
   1.0538158000000000        7.0677363000000007E-002  -3.8851673212680599E-002  0.11302474095195805       -3.7753766723580126E-003  0.11308777801458214     
   1.9375316000000000        7.4173926000000001E-002  0.13158252864414086       0.35726305226047683        2.4600984364098070E-002  0.35810905733052156     
   1.8368199999999999       0.10513226000000001        9.8762934957006485E-002  0.31229250642278589        2.5506876263157029E-002  0.31333242778960774     
   1.1562157000000000       0.10324701000000000       -2.6623590490158278E-002  0.12439089996067536        6.2905574071053551E-003  0.12454985791047227     
   1.0792508999999999        8.0044793000000003E-002  -3.5977727107933670E-002  0.11527223488641336       -7.6502728906186780E-004  0.11527477348692325     
   1.9132586000000000        8.2602917999999997E-002  0.12334587323005509       0.34022110356849949        2.4801878918904691E-002  0.34112392544539538     
   1.8625198000000001        9.8237914999999995E-002  0.10683454625708912       0.32952786970431847        2.2833573855966342E-002  0.33031801193229254     
   1.7603012000000000       0.12284028000000000        7.7666216716978653E-002  0.25522139929451565        4.2980616855305340E-002  0.25881517745896038     
   1.1304514999999999        9.6201507000000006E-002  -2.9843245827506429E-002  0.12323598180466543        4.1612878156093219E-003  0.12330621852787542     
   1.1047932000000000        8.8482221000000000E-002  -3.3003812160024050E-002  0.11951927373320198        1.8913410669300567E-003  0.11953423762564230     
   1.8880999000000001        9.0696362000000003E-002  0.11523862799309538       0.33182223669617034        2.4653780074403220E-002  0.33273684141977172     
   1.4967052000000001       0.14847339000000001        2.2679374657624655E-002  0.17360762280976944        3.1948252427923506E-002  0.17652279606571356     
  0.97468200000000005        4.8965760999999997E-002  -4.7789033502592469E-002  0.12447621148219710       -1.9162944337205758E-002  0.12594262844895490     
   1.2584479000000000       0.12681819999999999       -1.3432386347743016E-002  0.13226098050534485        1.3051051640069223E-002  0.13290333672691204     
   1.7346640000000000       0.12806755000000000        7.1541224000186449E-002  0.24183886521536749        4.5780979967628296E-002  0.24613397745019494     
   1.5225869999999999       0.14854459000000000        2.7356683883411902E-002  0.18579402134565887        3.3192001549229924E-002  0.18873560166178299     
   1.4706862000000001       0.14843579000000001        1.8351928595711296E-002  0.16370667892070798        3.1642427198409755E-002  0.16673667839517026     
   1.2842985000000000       0.13178744000000001       -9.9013202864292726E-003  0.13628421245274508        1.5446328698130568E-002  0.13715675569987665     
   1.7086541000000000       0.13288062000000000        6.5621385748803121E-002  0.23176333428621418        4.5307435275296841E-002  0.23615039024039042     